<?xml version="1.0" encoding="UTF-8"?>

<!-- generated on 05/28/21 10:46:15 by Eclipse SUMO GUI Version 1.8.0
<configuration xmlns:xsi="http://www.w3.org/2001/XMLSchema-instance" xsi:noNamespaceSchemaLocation="http://sumo.dlr.de/xsd/sumoConfiguration.xsd">

    <input>
        <net-file value="../maps/intersection_outcontrol/circle.net.xml"/>
        <route-files value="../maps/intersection_outcontrol/circle.rou.xml"/>
        <additional-files value="../output/additional.xml"/>
    </input>

    <output>
        <summary-output value="../maps/intersection_outcontrol/sum.xml"/>
        <tripinfo-output value="../maps/intersection_outcontrol/tripinfo.xml"/>
        <statistic-output value="../maps/intersection_outcontrol/statistic.xml"/>
    </output>

    <time>
        <step-length value="0.1"/>
    </time>

    <processing>
        <collision.action value="none"/>
        <scale value="1"/>
    </processing>

    <report>
        <verbose value="true"/>
        <duration-log.statistics value="true"/>
    </report>

    <traci_server>
        <remote-port value="53152"/>
    </traci_server>

    <gui_only>
        <gui-settings-file value="../maps/intersection_outcontrol/gui.settings.xml"/>
        <quit-on-end value="true"/>
        <start value="true"/>
        <tracker-interval value="0.1"/>
    </gui_only>

</configuration>
-->

<tripinfos xmlns:xsi="http://www.w3.org/2001/XMLSchema-instance" xsi:noNamespaceSchemaLocation="http://sumo.dlr.de/xsd/tripinfo_file.xsd">
</tripinfos>
