<?xml version="1.0" encoding="UTF-8"?>

<!-- generated on 05/31/21 09:12:31 by Eclipse SUMO GUI Version 1.8.0
<configuration xmlns:xsi="http://www.w3.org/2001/XMLSchema-instance" xsi:noNamespaceSchemaLocation="http://sumo.dlr.de/xsd/sumoConfiguration.xsd">

    <input>
        <net-file value="../maps/intersection/circle.net.xml"/>
        <route-files value="../maps/intersection/circle.rou.xml"/>
        <additional-files value="../output/additional.xml"/>
    </input>

    <output>
        <summary-output value="../maps/intersection/sum.xml"/>
        <tripinfo-output value="../maps/intersection/tripinfo.xml"/>
        <statistic-output value="../maps/intersection/statistic.xml"/>
    </output>

    <time>
        <step-length value="0.1"/>
    </time>

    <processing>
        <collision.action value="none"/>
        <scale value="1"/>
    </processing>

    <report>
        <verbose value="true"/>
        <duration-log.statistics value="true"/>
    </report>

    <traci_server>
        <remote-port value="1030"/>
    </traci_server>

    <gui_only>
        <gui-settings-file value="../maps/intersection/gui.settings.xml"/>
        <quit-on-end value="true"/>
        <start value="true"/>
        <tracker-interval value="0.1"/>
    </gui_only>

</configuration>
-->

<tripinfos xmlns:xsi="http://www.w3.org/2001/XMLSchema-instance" xsi:noNamespaceSchemaLocation="http://sumo.dlr.de/xsd/tripinfo_file.xsd">
    <tripinfo id="0.0" depart="0.00" departLane="BtoC_0" departPos="5.10" departSpeed="15.15" departDelay="0.00" arrival="93.40" arrivalLane="DtoE_0" arrivalPos="597.96" arrivalSpeed="17.00" duration="93.40" routeLength="1583.62" waitingTime="0.00" waitingCount="0" stopTime="0.00" timeLoss="0.16" rerouteNo="0" devices="tripinfo_0.0 ssm_0.0" vType="type_a" speedFactor="1.00" vaporized=""/>
    <tripinfo id="0.1" depart="0.90" departLane="BtoC_1" departPos="5.10" departSpeed="12.11" departDelay="0.00" arrival="94.60" arrivalLane="DtoE_1" arrivalPos="597.96" arrivalSpeed="17.00" duration="93.70" routeLength="1583.62" waitingTime="0.00" waitingCount="0" stopTime="0.00" timeLoss="0.50" rerouteNo="0" devices="tripinfo_0.1 ssm_0.1" vType="type_a" speedFactor="1.00" vaporized=""/>
    <tripinfo id="0.2" depart="1.80" departLane="BtoC_2" departPos="5.10" departSpeed="0.77" departDelay="0.00" arrival="99.40" arrivalLane="DtoE_1" arrivalPos="597.96" arrivalSpeed="16.98" duration="97.60" routeLength="1583.62" waitingTime="0.00" waitingCount="0" stopTime="0.00" timeLoss="4.36" rerouteNo="0" devices="tripinfo_0.2 ssm_0.2" vType="type_a" speedFactor="1.00" vaporized=""/>
    <tripinfo id="0.3" depart="2.70" departLane="BtoC_0" departPos="5.10" departSpeed="8.35" departDelay="0.00" arrival="99.60" arrivalLane="DtoE_0" arrivalPos="597.96" arrivalSpeed="16.98" duration="96.90" routeLength="1583.62" waitingTime="0.00" waitingCount="0" stopTime="0.00" timeLoss="3.71" rerouteNo="0" devices="tripinfo_0.3 ssm_0.3" vType="type_a" speedFactor="1.00" vaporized=""/>
    <tripinfo id="0.5" depart="4.50" departLane="BtoC_2" departPos="5.10" departSpeed="0.74" departDelay="0.00" arrival="103.10" arrivalLane="DtoE_2" arrivalPos="597.96" arrivalSpeed="17.00" duration="98.60" routeLength="1583.62" waitingTime="0.00" waitingCount="0" stopTime="0.00" timeLoss="5.40" rerouteNo="0" devices="tripinfo_0.5 ssm_0.5" vType="type_a" speedFactor="1.00" vaporized=""/>
    <tripinfo id="0.4" depart="3.60" departLane="BtoC_1" departPos="5.10" departSpeed="10.03" departDelay="0.00" arrival="103.20" arrivalLane="DtoE_1" arrivalPos="597.96" arrivalSpeed="16.94" duration="99.60" routeLength="1583.62" waitingTime="0.00" waitingCount="0" stopTime="0.00" timeLoss="6.35" rerouteNo="0" devices="tripinfo_0.4 ssm_0.4" vType="type_a" speedFactor="1.00" vaporized=""/>
    <tripinfo id="0.6" depart="5.40" departLane="BtoC_0" departPos="5.10" departSpeed="12.64" departDelay="0.00" arrival="104.40" arrivalLane="DtoE_0" arrivalPos="597.96" arrivalSpeed="16.97" duration="99.00" routeLength="1583.62" waitingTime="0.00" waitingCount="0" stopTime="0.00" timeLoss="5.82" rerouteNo="0" devices="tripinfo_0.6 ssm_0.6" vType="type_a" speedFactor="1.00" vaporized=""/>
    <tripinfo id="0.7" depart="6.30" departLane="BtoC_1" departPos="5.10" departSpeed="4.21" departDelay="0.00" arrival="106.80" arrivalLane="DtoE_1" arrivalPos="597.96" arrivalSpeed="16.92" duration="100.50" routeLength="1583.62" waitingTime="0.00" waitingCount="0" stopTime="0.00" timeLoss="7.35" rerouteNo="0" devices="tripinfo_0.7 ssm_0.7" vType="type_a" speedFactor="1.00" vaporized=""/>
    <tripinfo id="0.8" depart="7.20" departLane="BtoC_2" departPos="5.10" departSpeed="7.69" departDelay="0.00" arrival="108.40" arrivalLane="DtoE_1" arrivalPos="597.96" arrivalSpeed="16.99" duration="101.20" routeLength="1583.62" waitingTime="0.00" waitingCount="0" stopTime="0.00" timeLoss="7.97" rerouteNo="0" devices="tripinfo_0.8 ssm_0.8" vType="type_a" speedFactor="1.00" vaporized=""/>
    <tripinfo id="0.9" depart="8.10" departLane="BtoC_0" departPos="5.10" departSpeed="12.67" departDelay="0.00" arrival="108.70" arrivalLane="DtoE_0" arrivalPos="597.96" arrivalSpeed="16.97" duration="100.60" routeLength="1583.62" waitingTime="0.00" waitingCount="0" stopTime="0.00" timeLoss="7.41" rerouteNo="0" devices="tripinfo_0.9 ssm_0.9" vType="type_a" speedFactor="1.00" vaporized=""/>
    <tripinfo id="0.10" depart="9.00" departLane="BtoC_1" departPos="5.10" departSpeed="0.10" departDelay="0.00" arrival="110.80" arrivalLane="DtoE_1" arrivalPos="597.96" arrivalSpeed="16.65" duration="101.80" routeLength="1583.62" waitingTime="0.00" waitingCount="0" stopTime="0.00" timeLoss="8.63" rerouteNo="0" devices="tripinfo_0.10 ssm_0.10" vType="type_a" speedFactor="1.00" vaporized=""/>
    <tripinfo id="0.11" depart="9.90" departLane="BtoC_2" departPos="5.10" departSpeed="10.88" departDelay="0.00" arrival="112.70" arrivalLane="DtoE_2" arrivalPos="597.96" arrivalSpeed="16.99" duration="102.80" routeLength="1583.62" waitingTime="0.00" waitingCount="0" stopTime="0.00" timeLoss="9.60" rerouteNo="0" devices="tripinfo_0.11 ssm_0.11" vType="type_a" speedFactor="1.00" vaporized=""/>
    <tripinfo id="0.12" depart="10.80" departLane="BtoC_0" departPos="5.10" departSpeed="7.92" departDelay="0.00" arrival="112.70" arrivalLane="DtoE_0" arrivalPos="597.96" arrivalSpeed="16.90" duration="101.90" routeLength="1583.62" waitingTime="0.00" waitingCount="0" stopTime="0.00" timeLoss="8.71" rerouteNo="0" devices="tripinfo_0.12 ssm_0.12" vType="type_a" speedFactor="1.00" vaporized=""/>
    <tripinfo id="0.13" depart="11.70" departLane="BtoC_1" departPos="5.10" departSpeed="6.45" departDelay="0.00" arrival="114.50" arrivalLane="DtoE_1" arrivalPos="597.96" arrivalSpeed="16.92" duration="102.80" routeLength="1583.62" waitingTime="0.00" waitingCount="0" stopTime="0.00" timeLoss="9.62" rerouteNo="0" devices="tripinfo_0.13 ssm_0.13" vType="type_a" speedFactor="1.00" vaporized=""/>
    <tripinfo id="0.15" depart="13.50" departLane="BtoC_0" departPos="5.10" departSpeed="4.50" departDelay="0.00" arrival="116.50" arrivalLane="DtoE_0" arrivalPos="597.96" arrivalSpeed="16.93" duration="103.00" routeLength="1583.62" waitingTime="0.00" waitingCount="0" stopTime="0.00" timeLoss="9.76" rerouteNo="0" devices="tripinfo_0.15 ssm_0.15" vType="type_a" speedFactor="1.00" vaporized=""/>
    <tripinfo id="0.14" depart="12.60" departLane="BtoC_2" departPos="5.10" departSpeed="9.63" departDelay="0.00" arrival="116.70" arrivalLane="DtoE_2" arrivalPos="597.96" arrivalSpeed="16.95" duration="104.10" routeLength="1583.62" waitingTime="0.00" waitingCount="0" stopTime="0.00" timeLoss="10.92" rerouteNo="0" devices="tripinfo_0.14 ssm_0.14" vType="type_a" speedFactor="1.00" vaporized=""/>
    <tripinfo id="0.16" depart="14.40" departLane="BtoC_1" departPos="5.10" departSpeed="1.02" departDelay="0.00" arrival="118.30" arrivalLane="DtoE_1" arrivalPos="597.96" arrivalSpeed="16.93" duration="103.90" routeLength="1583.62" waitingTime="0.00" waitingCount="0" stopTime="0.00" timeLoss="10.65" rerouteNo="0" devices="tripinfo_0.16 ssm_0.16" vType="type_a" speedFactor="1.00" vaporized=""/>
    <tripinfo id="0.18" depart="16.20" departLane="BtoC_0" departPos="5.10" departSpeed="5.47" departDelay="0.00" arrival="120.10" arrivalLane="DtoE_0" arrivalPos="597.96" arrivalSpeed="16.92" duration="103.90" routeLength="1583.62" waitingTime="0.00" waitingCount="0" stopTime="0.00" timeLoss="10.67" rerouteNo="0" devices="tripinfo_0.18 ssm_0.18" vType="type_a" speedFactor="1.00" vaporized=""/>
    <tripinfo id="0.17" depart="15.30" departLane="BtoC_2" departPos="5.10" departSpeed="14.46" departDelay="0.00" arrival="120.40" arrivalLane="DtoE_2" arrivalPos="597.96" arrivalSpeed="16.93" duration="105.10" routeLength="1583.62" waitingTime="0.00" waitingCount="0" stopTime="0.00" timeLoss="11.95" rerouteNo="0" devices="tripinfo_0.17 ssm_0.17" vType="type_a" speedFactor="1.00" vaporized=""/>
    <tripinfo id="0.19" depart="17.10" departLane="BtoC_1" departPos="5.10" departSpeed="8.94" departDelay="0.00" arrival="121.90" arrivalLane="DtoE_1" arrivalPos="597.96" arrivalSpeed="16.92" duration="104.80" routeLength="1583.62" waitingTime="0.00" waitingCount="0" stopTime="0.00" timeLoss="11.61" rerouteNo="0" devices="tripinfo_0.19 ssm_0.19" vType="type_a" speedFactor="1.00" vaporized=""/>
    <tripinfo id="0.21" depart="18.90" departLane="BtoC_0" departPos="5.10" departSpeed="8.72" departDelay="0.00" arrival="123.60" arrivalLane="DtoE_0" arrivalPos="597.96" arrivalSpeed="16.90" duration="104.70" routeLength="1583.62" waitingTime="0.00" waitingCount="0" stopTime="0.00" timeLoss="11.47" rerouteNo="0" devices="tripinfo_0.21 ssm_0.21" vType="type_a" speedFactor="1.00" vaporized=""/>
    <tripinfo id="0.20" depart="18.00" departLane="BtoC_2" departPos="5.10" departSpeed="0.79" departDelay="0.00" arrival="124.00" arrivalLane="DtoE_2" arrivalPos="597.96" arrivalSpeed="16.91" duration="106.00" routeLength="1583.62" waitingTime="0.00" waitingCount="0" stopTime="0.00" timeLoss="12.80" rerouteNo="0" devices="tripinfo_0.20 ssm_0.20" vType="type_a" speedFactor="1.00" vaporized=""/>
    <tripinfo id="0.22" depart="19.80" departLane="BtoC_1" departPos="5.10" departSpeed="5.22" departDelay="0.00" arrival="125.50" arrivalLane="DtoE_1" arrivalPos="597.96" arrivalSpeed="16.91" duration="105.70" routeLength="1583.62" waitingTime="0.00" waitingCount="0" stopTime="0.00" timeLoss="12.47" rerouteNo="0" devices="tripinfo_0.22 ssm_0.22" vType="type_a" speedFactor="1.00" vaporized=""/>
    <tripinfo id="0.24" depart="21.60" departLane="BtoC_0" departPos="5.10" departSpeed="15.37" departDelay="0.00" arrival="127.00" arrivalLane="DtoE_0" arrivalPos="597.96" arrivalSpeed="16.89" duration="105.40" routeLength="1583.62" waitingTime="0.00" waitingCount="0" stopTime="0.00" timeLoss="12.18" rerouteNo="0" devices="tripinfo_0.24 ssm_0.24" vType="type_a" speedFactor="1.00" vaporized=""/>
    <tripinfo id="0.23" depart="20.70" departLane="BtoC_2" departPos="5.10" departSpeed="8.65" departDelay="0.00" arrival="127.40" arrivalLane="DtoE_2" arrivalPos="597.96" arrivalSpeed="16.89" duration="106.70" routeLength="1583.62" waitingTime="0.00" waitingCount="0" stopTime="0.00" timeLoss="13.53" rerouteNo="0" devices="tripinfo_0.23 ssm_0.23" vType="type_a" speedFactor="1.00" vaporized=""/>
    <tripinfo id="0.25" depart="22.50" departLane="BtoC_1" departPos="5.10" departSpeed="13.18" departDelay="0.00" arrival="128.90" arrivalLane="DtoE_1" arrivalPos="597.96" arrivalSpeed="16.89" duration="106.40" routeLength="1583.62" waitingTime="0.00" waitingCount="0" stopTime="0.00" timeLoss="13.23" rerouteNo="0" devices="tripinfo_0.25 ssm_0.25" vType="type_a" speedFactor="1.00" vaporized=""/>
    <tripinfo id="0.27" depart="24.30" departLane="BtoC_0" departPos="5.10" departSpeed="6.74" departDelay="0.00" arrival="130.30" arrivalLane="DtoE_0" arrivalPos="597.96" arrivalSpeed="16.88" duration="106.00" routeLength="1583.62" waitingTime="0.00" waitingCount="0" stopTime="0.00" timeLoss="12.81" rerouteNo="0" devices="tripinfo_0.27 ssm_0.27" vType="type_a" speedFactor="1.00" vaporized=""/>
    <tripinfo id="0.26" depart="23.40" departLane="BtoC_2" departPos="5.10" departSpeed="13.48" departDelay="0.00" arrival="130.80" arrivalLane="DtoE_2" arrivalPos="597.96" arrivalSpeed="16.88" duration="107.40" routeLength="1583.62" waitingTime="0.00" waitingCount="0" stopTime="0.00" timeLoss="14.15" rerouteNo="0" devices="tripinfo_0.26 ssm_0.26" vType="type_a" speedFactor="1.00" vaporized=""/>
    <tripinfo id="0.28" depart="25.20" departLane="BtoC_1" departPos="5.10" departSpeed="9.25" departDelay="0.00" arrival="132.30" arrivalLane="DtoE_1" arrivalPos="597.96" arrivalSpeed="16.89" duration="107.10" routeLength="1583.62" waitingTime="0.00" waitingCount="0" stopTime="0.00" timeLoss="13.89" rerouteNo="0" devices="tripinfo_0.28 ssm_0.28" vType="type_a" speedFactor="1.00" vaporized=""/>
    <tripinfo id="0.30" depart="27.00" departLane="BtoC_0" departPos="5.10" departSpeed="0.55" departDelay="0.00" arrival="133.60" arrivalLane="DtoE_0" arrivalPos="597.96" arrivalSpeed="16.87" duration="106.60" routeLength="1583.62" waitingTime="0.00" waitingCount="0" stopTime="0.00" timeLoss="13.37" rerouteNo="0" devices="tripinfo_0.30 ssm_0.30" vType="type_a" speedFactor="1.00" vaporized=""/>
    <tripinfo id="0.29" depart="26.10" departLane="BtoC_2" departPos="5.10" departSpeed="4.02" departDelay="0.00" arrival="134.00" arrivalLane="DtoE_2" arrivalPos="597.96" arrivalSpeed="16.86" duration="107.90" routeLength="1583.62" waitingTime="0.00" waitingCount="0" stopTime="0.00" timeLoss="14.71" rerouteNo="0" devices="tripinfo_0.29 ssm_0.29" vType="type_a" speedFactor="1.00" vaporized=""/>
    <tripinfo id="0.31" depart="27.90" departLane="BtoC_1" departPos="5.10" departSpeed="5.13" departDelay="0.00" arrival="135.60" arrivalLane="DtoE_1" arrivalPos="597.96" arrivalSpeed="16.87" duration="107.70" routeLength="1583.62" waitingTime="0.00" waitingCount="0" stopTime="0.00" timeLoss="14.48" rerouteNo="0" devices="tripinfo_0.31 ssm_0.31" vType="type_a" speedFactor="1.00" vaporized=""/>
    <tripinfo id="0.33" depart="29.70" departLane="BtoC_0" departPos="5.10" departSpeed="2.70" departDelay="0.00" arrival="136.80" arrivalLane="DtoE_0" arrivalPos="597.96" arrivalSpeed="16.85" duration="107.10" routeLength="1583.62" waitingTime="0.00" waitingCount="0" stopTime="0.00" timeLoss="13.88" rerouteNo="0" devices="tripinfo_0.33 ssm_0.33" vType="type_a" speedFactor="1.00" vaporized=""/>
    <tripinfo id="0.32" depart="28.80" departLane="BtoC_2" departPos="5.10" departSpeed="12.34" departDelay="0.00" arrival="137.20" arrivalLane="DtoE_2" arrivalPos="597.96" arrivalSpeed="16.85" duration="108.40" routeLength="1583.62" waitingTime="0.00" waitingCount="0" stopTime="0.00" timeLoss="15.19" rerouteNo="0" devices="tripinfo_0.32 ssm_0.32" vType="type_a" speedFactor="1.00" vaporized=""/>
    <tripinfo id="0.34" depart="30.60" departLane="BtoC_1" departPos="5.10" departSpeed="15.00" departDelay="0.00" arrival="138.80" arrivalLane="DtoE_1" arrivalPos="597.96" arrivalSpeed="16.86" duration="108.20" routeLength="1583.62" waitingTime="0.00" waitingCount="0" stopTime="0.00" timeLoss="15.00" rerouteNo="0" devices="tripinfo_0.34 ssm_0.34" vType="type_a" speedFactor="1.00" vaporized=""/>
    <tripinfo id="0.36" depart="32.40" departLane="BtoC_0" departPos="5.10" departSpeed="10.35" departDelay="0.00" arrival="139.90" arrivalLane="DtoE_0" arrivalPos="597.96" arrivalSpeed="16.84" duration="107.50" routeLength="1583.62" waitingTime="0.00" waitingCount="0" stopTime="0.00" timeLoss="14.35" rerouteNo="0" devices="tripinfo_0.36 ssm_0.36" vType="type_a" speedFactor="1.00" vaporized=""/>
    <tripinfo id="0.35" depart="31.50" departLane="BtoC_2" departPos="5.10" departSpeed="0.51" departDelay="0.00" arrival="140.30" arrivalLane="DtoE_2" arrivalPos="597.96" arrivalSpeed="16.83" duration="108.80" routeLength="1583.62" waitingTime="0.00" waitingCount="0" stopTime="0.00" timeLoss="15.62" rerouteNo="0" devices="tripinfo_0.35 ssm_0.35" vType="type_a" speedFactor="1.00" vaporized=""/>
    <tripinfo id="0.37" depart="33.30" departLane="BtoC_1" departPos="5.10" departSpeed="5.63" departDelay="0.00" arrival="142.00" arrivalLane="DtoE_1" arrivalPos="597.96" arrivalSpeed="16.85" duration="108.70" routeLength="1583.62" waitingTime="0.00" waitingCount="0" stopTime="0.00" timeLoss="15.46" rerouteNo="0" devices="tripinfo_0.37 ssm_0.37" vType="type_a" speedFactor="1.00" vaporized=""/>
    <tripinfo id="0.39" depart="35.10" departLane="BtoC_0" departPos="5.10" departSpeed="2.13" departDelay="0.00" arrival="143.10" arrivalLane="DtoE_0" arrivalPos="597.96" arrivalSpeed="16.84" duration="108.00" routeLength="1583.62" waitingTime="0.00" waitingCount="0" stopTime="0.00" timeLoss="14.77" rerouteNo="0" devices="tripinfo_0.39 ssm_0.39" vType="type_a" speedFactor="1.00" vaporized=""/>
    <tripinfo id="0.38" depart="34.20" departLane="BtoC_2" departPos="5.10" departSpeed="2.20" departDelay="0.00" arrival="143.40" arrivalLane="DtoE_2" arrivalPos="597.96" arrivalSpeed="16.83" duration="109.20" routeLength="1583.62" waitingTime="0.00" waitingCount="0" stopTime="0.00" timeLoss="16.00" rerouteNo="0" devices="tripinfo_0.38 ssm_0.38" vType="type_a" speedFactor="1.00" vaporized=""/>
    <tripinfo id="0.40" depart="36.00" departLane="BtoC_1" departPos="5.10" departSpeed="6.99" departDelay="0.00" arrival="145.10" arrivalLane="DtoE_1" arrivalPos="597.96" arrivalSpeed="16.83" duration="109.10" routeLength="1583.62" waitingTime="0.00" waitingCount="0" stopTime="0.00" timeLoss="15.88" rerouteNo="0" devices="tripinfo_0.40 ssm_0.40" vType="type_a" speedFactor="1.00" vaporized=""/>
</tripinfos>
