<?xml version="1.0" encoding="UTF-8"?>

<!-- generated on 05/28/21 15:10:15 by Eclipse SUMO GUI Version 1.8.0
<configuration xmlns:xsi="http://www.w3.org/2001/XMLSchema-instance" xsi:noNamespaceSchemaLocation="http://sumo.dlr.de/xsd/sumoConfiguration.xsd">

    <input>
        <net-file value="../maps/intersection_trafficlight/circle.net.xml"/>
        <route-files value="../maps/intersection_trafficlight/circle.rou.xml"/>
        <additional-files value="../output/additional.xml"/>
    </input>

    <output>
        <summary-output value="../maps/intersection_trafficlight/sum.xml"/>
        <tripinfo-output value="../maps/intersection_trafficlight/tripinfo.xml"/>
        <statistic-output value="../maps/intersection_trafficlight/statistic.xml"/>
    </output>

    <time>
        <step-length value="0.1"/>
    </time>

    <processing>
        <collision.action value="none"/>
        <scale value="1"/>
    </processing>

    <report>
        <verbose value="true"/>
        <duration-log.statistics value="true"/>
    </report>

    <traci_server>
        <remote-port value="55575"/>
    </traci_server>

    <gui_only>
        <gui-settings-file value="../maps/intersection_trafficlight/gui.settings.xml"/>
        <quit-on-end value="true"/>
        <start value="true"/>
        <tracker-interval value="0.1"/>
    </gui_only>

</configuration>
-->

<tripinfos xmlns:xsi="http://www.w3.org/2001/XMLSchema-instance" xsi:noNamespaceSchemaLocation="http://sumo.dlr.de/xsd/tripinfo_file.xsd">
    <tripinfo id="0.0" depart="0.00" departLane="BtoC_2" departPos="5.10" departSpeed="12.11" departDelay="0.00" arrival="93.80" arrivalLane="DtoE_0" arrivalPos="597.96" arrivalSpeed="17.00" duration="93.80" routeLength="1583.62" waitingTime="0.00" waitingCount="0" stopTime="0.00" timeLoss="0.57" rerouteNo="0" devices="tripinfo_0.0 ssm_0.0" vType="type_a" speedFactor="1.00" vaporized=""/>
    <tripinfo id="0.1" depart="0.60" departLane="BtoC_2" departPos="5.10" departSpeed="0.00" departDelay="0.00" arrival="97.30" arrivalLane="DtoE_1" arrivalPos="597.96" arrivalSpeed="17.00" duration="96.70" routeLength="1583.62" waitingTime="0.10" waitingCount="1" stopTime="0.00" timeLoss="3.52" rerouteNo="0" devices="tripinfo_0.1 ssm_0.1" vType="type_a" speedFactor="1.00" vaporized=""/>
    <tripinfo id="0.2" depart="1.30" departLane="BtoC_1" departPos="5.10" departSpeed="7.92" departDelay="0.10" arrival="99.00" arrivalLane="DtoE_0" arrivalPos="597.96" arrivalSpeed="16.99" duration="97.70" routeLength="1583.62" waitingTime="0.00" waitingCount="0" stopTime="0.00" timeLoss="4.46" rerouteNo="0" devices="tripinfo_0.2 ssm_0.2" vType="type_a" speedFactor="1.00" vaporized=""/>
    <tripinfo id="0.5" depart="3.20" departLane="BtoC_2" departPos="5.10" departSpeed="2.52" departDelay="0.20" arrival="101.50" arrivalLane="DtoE_2" arrivalPos="597.96" arrivalSpeed="17.00" duration="98.30" routeLength="1583.62" waitingTime="0.00" waitingCount="0" stopTime="0.00" timeLoss="5.14" rerouteNo="0" devices="tripinfo_0.5 ssm_0.5" vType="type_a" speedFactor="1.00" vaporized=""/>
    <tripinfo id="0.4" depart="2.50" departLane="BtoC_1" departPos="5.10" departSpeed="6.59" departDelay="0.10" arrival="102.60" arrivalLane="DtoE_1" arrivalPos="597.96" arrivalSpeed="16.99" duration="100.10" routeLength="1583.62" waitingTime="0.00" waitingCount="0" stopTime="0.00" timeLoss="6.90" rerouteNo="0" devices="tripinfo_0.4 ssm_0.4" vType="type_a" speedFactor="1.00" vaporized=""/>
    <tripinfo id="0.3" depart="2.10" departLane="BtoC_0" departPos="5.10" departSpeed="5.22" departDelay="0.30" arrival="103.20" arrivalLane="DtoE_0" arrivalPos="597.96" arrivalSpeed="16.96" duration="101.10" routeLength="1583.62" waitingTime="0.00" waitingCount="0" stopTime="0.00" timeLoss="7.90" rerouteNo="0" devices="tripinfo_0.3 ssm_0.3" vType="type_a" speedFactor="1.00" vaporized=""/>
    <tripinfo id="0.6" depart="3.60" departLane="BtoC_0" departPos="5.10" departSpeed="5.48" departDelay="0.00" arrival="107.00" arrivalLane="DtoE_0" arrivalPos="597.96" arrivalSpeed="16.94" duration="103.40" routeLength="1583.62" waitingTime="0.00" waitingCount="0" stopTime="0.00" timeLoss="10.23" rerouteNo="0" devices="tripinfo_0.6 ssm_0.6" vType="type_a" speedFactor="1.00" vaporized=""/>
    <tripinfo id="0.7" depart="4.40" departLane="BtoC_1" departPos="5.10" departSpeed="4.10" departDelay="0.20" arrival="107.00" arrivalLane="DtoE_1" arrivalPos="597.96" arrivalSpeed="16.97" duration="102.60" routeLength="1583.62" waitingTime="0.00" waitingCount="0" stopTime="0.00" timeLoss="9.44" rerouteNo="0" devices="tripinfo_0.7 ssm_0.7" vType="type_a" speedFactor="1.00" vaporized=""/>
    <tripinfo id="0.8" depart="5.30" departLane="BtoC_2" departPos="5.10" departSpeed="0.00" departDelay="0.50" arrival="107.10" arrivalLane="DtoE_2" arrivalPos="597.96" arrivalSpeed="16.99" duration="101.80" routeLength="1583.62" waitingTime="0.00" waitingCount="0" stopTime="0.00" timeLoss="8.57" rerouteNo="0" devices="tripinfo_0.8 ssm_0.8" vType="type_a" speedFactor="1.00" vaporized=""/>
    <tripinfo id="0.10" depart="6.00" departLane="BtoC_0" departPos="5.10" departSpeed="3.52" departDelay="0.00" arrival="110.60" arrivalLane="DtoE_0" arrivalPos="597.96" arrivalSpeed="16.92" duration="104.60" routeLength="1583.62" waitingTime="0.00" waitingCount="0" stopTime="0.00" timeLoss="11.45" rerouteNo="0" devices="tripinfo_0.10 ssm_0.10" vType="type_a" speedFactor="1.00" vaporized=""/>
    <tripinfo id="0.9" depart="5.80" departLane="BtoC_1" departPos="5.10" departSpeed="1.35" departDelay="0.40" arrival="111.10" arrivalLane="DtoE_1" arrivalPos="597.96" arrivalSpeed="16.96" duration="105.30" routeLength="1583.62" waitingTime="0.00" waitingCount="0" stopTime="0.00" timeLoss="12.07" rerouteNo="0" devices="tripinfo_0.9 ssm_0.9" vType="type_a" speedFactor="1.00" vaporized=""/>
    <tripinfo id="0.11" depart="7.90" departLane="BtoC_2" departPos="5.10" departSpeed="1.82" departDelay="1.30" arrival="111.60" arrivalLane="DtoE_2" arrivalPos="597.96" arrivalSpeed="16.97" duration="103.70" routeLength="1583.62" waitingTime="0.00" waitingCount="0" stopTime="0.00" timeLoss="10.49" rerouteNo="0" devices="tripinfo_0.11 ssm_0.11" vType="type_a" speedFactor="1.00" vaporized=""/>
    <tripinfo id="0.12" depart="7.50" departLane="BtoC_0" departPos="5.10" departSpeed="2.67" departDelay="0.30" arrival="114.10" arrivalLane="DtoE_0" arrivalPos="597.96" arrivalSpeed="16.90" duration="106.60" routeLength="1583.62" waitingTime="0.00" waitingCount="0" stopTime="0.00" timeLoss="13.43" rerouteNo="0" devices="tripinfo_0.12 ssm_0.12" vType="type_a" speedFactor="1.00" vaporized=""/>
    <tripinfo id="0.13" depart="8.20" departLane="BtoC_1" departPos="5.10" departSpeed="2.30" departDelay="0.40" arrival="114.90" arrivalLane="DtoE_1" arrivalPos="597.96" arrivalSpeed="16.94" duration="106.70" routeLength="1583.62" waitingTime="0.00" waitingCount="0" stopTime="0.00" timeLoss="13.46" rerouteNo="0" devices="tripinfo_0.13 ssm_0.13" vType="type_a" speedFactor="1.00" vaporized=""/>
    <tripinfo id="0.15" depart="10.20" departLane="BtoC_2" departPos="5.10" departSpeed="0.00" departDelay="1.20" arrival="115.60" arrivalLane="DtoE_2" arrivalPos="597.96" arrivalSpeed="16.95" duration="105.40" routeLength="1583.62" waitingTime="0.10" waitingCount="1" stopTime="0.00" timeLoss="12.24" rerouteNo="0" devices="tripinfo_0.15 ssm_0.15" vType="type_a" speedFactor="1.00" vaporized=""/>
    <tripinfo id="0.14" depart="9.70" departLane="BtoC_0" departPos="5.10" departSpeed="2.07" departDelay="1.30" arrival="117.50" arrivalLane="DtoE_0" arrivalPos="597.96" arrivalSpeed="16.89" duration="107.80" routeLength="1583.62" waitingTime="0.00" waitingCount="0" stopTime="0.00" timeLoss="14.62" rerouteNo="0" devices="tripinfo_0.14 ssm_0.14" vType="type_a" speedFactor="1.00" vaporized=""/>
    <tripinfo id="0.16" depart="10.50" departLane="BtoC_1" departPos="5.10" departSpeed="1.76" departDelay="0.90" arrival="118.50" arrivalLane="DtoE_1" arrivalPos="597.96" arrivalSpeed="16.92" duration="108.00" routeLength="1583.62" waitingTime="0.00" waitingCount="0" stopTime="0.00" timeLoss="14.76" rerouteNo="0" devices="tripinfo_0.16 ssm_0.16" vType="type_a" speedFactor="1.00" vaporized=""/>
    <tripinfo id="0.18" depart="12.80" departLane="BtoC_2" departPos="5.10" departSpeed="0.00" departDelay="2.00" arrival="119.40" arrivalLane="DtoE_2" arrivalPos="597.96" arrivalSpeed="16.94" duration="106.60" routeLength="1583.62" waitingTime="0.10" waitingCount="1" stopTime="0.00" timeLoss="13.43" rerouteNo="0" devices="tripinfo_0.18 ssm_0.18" vType="type_a" speedFactor="1.00" vaporized=""/>
    <tripinfo id="0.17" depart="11.90" departLane="BtoC_0" departPos="5.10" departSpeed="0.00" departDelay="1.70" arrival="120.80" arrivalLane="DtoE_0" arrivalPos="597.96" arrivalSpeed="16.87" duration="108.90" routeLength="1583.62" waitingTime="0.10" waitingCount="1" stopTime="0.00" timeLoss="15.73" rerouteNo="0" devices="tripinfo_0.17 ssm_0.17" vType="type_a" speedFactor="1.00" vaporized=""/>
    <tripinfo id="0.23" depart="15.60" departLane="BtoC_2" departPos="5.10" departSpeed="3.57" departDelay="1.80" arrival="124.60" arrivalLane="DtoE_2" arrivalPos="597.96" arrivalSpeed="16.99" duration="109.00" routeLength="1583.62" waitingTime="0.00" waitingCount="0" stopTime="0.00" timeLoss="15.75" rerouteNo="0" devices="tripinfo_0.23 ssm_0.23" vType="type_a" speedFactor="1.00" vaporized=""/>
    <tripinfo id="0.21" depart="14.50" departLane="BtoC_0" departPos="5.10" departSpeed="1.85" departDelay="1.90" arrival="125.00" arrivalLane="DtoE_0" arrivalPos="597.96" arrivalSpeed="16.96" duration="110.50" routeLength="1583.62" waitingTime="0.00" waitingCount="0" stopTime="0.00" timeLoss="17.28" rerouteNo="0" devices="tripinfo_0.21 ssm_0.21" vType="type_a" speedFactor="1.00" vaporized=""/>
    <tripinfo id="0.19" depart="12.80" departLane="BtoC_1" departPos="5.10" departSpeed="0.00" departDelay="1.40" arrival="125.10" arrivalLane="DtoE_1" arrivalPos="597.96" arrivalSpeed="16.99" duration="112.30" routeLength="1583.62" waitingTime="2.30" waitingCount="2" stopTime="0.00" timeLoss="19.10" rerouteNo="0" devices="tripinfo_0.19 ssm_0.19" vType="type_a" speedFactor="1.00" vaporized=""/>
    <tripinfo id="0.25" depart="17.60" departLane="BtoC_2" departPos="5.10" departSpeed="0.00" departDelay="2.60" arrival="128.40" arrivalLane="DtoE_2" arrivalPos="597.96" arrivalSpeed="16.94" duration="110.80" routeLength="1583.62" waitingTime="0.10" waitingCount="1" stopTime="0.00" timeLoss="17.64" rerouteNo="0" devices="tripinfo_0.25 ssm_0.25" vType="type_a" speedFactor="1.00" vaporized=""/>
    <tripinfo id="0.24" depart="16.90" departLane="BtoC_0" departPos="5.10" departSpeed="0.00" departDelay="2.50" arrival="128.60" arrivalLane="DtoE_0" arrivalPos="597.96" arrivalSpeed="16.92" duration="111.70" routeLength="1583.62" waitingTime="0.10" waitingCount="1" stopTime="0.00" timeLoss="18.54" rerouteNo="0" devices="tripinfo_0.24 ssm_0.24" vType="type_a" speedFactor="1.00" vaporized=""/>
    <tripinfo id="0.20" depart="15.40" departLane="BtoC_1" departPos="5.10" departSpeed="0.00" departDelay="3.40" arrival="129.10" arrivalLane="DtoE_1" arrivalPos="597.96" arrivalSpeed="16.95" duration="113.70" routeLength="1583.62" waitingTime="0.10" waitingCount="1" stopTime="0.00" timeLoss="20.47" rerouteNo="0" devices="tripinfo_0.20 ssm_0.20" vType="type_a" speedFactor="1.00" vaporized=""/>
    <tripinfo id="0.28" depart="20.30" departLane="BtoC_2" departPos="5.10" departSpeed="2.31" departDelay="3.50" arrival="131.90" arrivalLane="DtoE_2" arrivalPos="597.96" arrivalSpeed="16.90" duration="111.60" routeLength="1583.62" waitingTime="0.00" waitingCount="0" stopTime="0.00" timeLoss="18.38" rerouteNo="0" devices="tripinfo_0.28 ssm_0.28" vType="type_a" speedFactor="1.00" vaporized=""/>
    <tripinfo id="0.26" depart="19.60" departLane="BtoC_0" departPos="5.10" departSpeed="2.23" departDelay="4.00" arrival="132.00" arrivalLane="DtoE_0" arrivalPos="597.96" arrivalSpeed="16.89" duration="112.40" routeLength="1583.62" waitingTime="0.00" waitingCount="0" stopTime="0.00" timeLoss="19.20" rerouteNo="0" devices="tripinfo_0.26 ssm_0.26" vType="type_a" speedFactor="1.00" vaporized=""/>
    <tripinfo id="0.22" depart="18.10" departLane="BtoC_1" departPos="5.10" departSpeed="0.00" departDelay="4.90" arrival="132.50" arrivalLane="DtoE_1" arrivalPos="597.96" arrivalSpeed="16.90" duration="114.40" routeLength="1583.62" waitingTime="0.10" waitingCount="1" stopTime="0.00" timeLoss="21.24" rerouteNo="0" devices="tripinfo_0.22 ssm_0.22" vType="type_a" speedFactor="1.00" vaporized=""/>
    <tripinfo id="0.37" depart="22.60" departLane="BtoC_2" departPos="5.10" departSpeed="0.00" departDelay="0.40" arrival="135.10" arrivalLane="DtoE_2" arrivalPos="597.96" arrivalSpeed="16.86" duration="112.50" routeLength="1583.62" waitingTime="0.10" waitingCount="1" stopTime="0.00" timeLoss="19.30" rerouteNo="0" devices="tripinfo_0.37 ssm_0.37" vType="type_a" speedFactor="1.00" vaporized=""/>
    <tripinfo id="0.29" depart="21.90" departLane="BtoC_0" departPos="5.10" departSpeed="1.92" departDelay="4.50" arrival="135.20" arrivalLane="DtoE_0" arrivalPos="597.96" arrivalSpeed="16.85" duration="113.30" routeLength="1583.62" waitingTime="0.00" waitingCount="0" stopTime="0.00" timeLoss="20.07" rerouteNo="0" devices="tripinfo_0.29 ssm_0.29" vType="type_a" speedFactor="1.00" vaporized=""/>
    <tripinfo id="0.27" depart="20.70" departLane="BtoC_1" departPos="5.10" departSpeed="0.00" departDelay="4.50" arrival="135.70" arrivalLane="DtoE_1" arrivalPos="597.96" arrivalSpeed="16.86" duration="115.00" routeLength="1583.62" waitingTime="0.10" waitingCount="1" stopTime="0.00" timeLoss="21.84" rerouteNo="0" devices="tripinfo_0.27 ssm_0.27" vType="type_a" speedFactor="1.00" vaporized=""/>
    <tripinfo id="0.31" depart="24.30" departLane="BtoC_0" departPos="5.10" departSpeed="0.00" departDelay="5.70" arrival="138.20" arrivalLane="DtoE_0" arrivalPos="597.96" arrivalSpeed="16.81" duration="113.90" routeLength="1583.62" waitingTime="0.10" waitingCount="1" stopTime="0.00" timeLoss="20.72" rerouteNo="0" devices="tripinfo_0.31 ssm_0.31" vType="type_a" speedFactor="1.00" vaporized=""/>
    <tripinfo id="0.35" depart="25.30" departLane="BtoC_2" departPos="5.10" departSpeed="0.00" departDelay="4.30" arrival="138.20" arrivalLane="DtoE_2" arrivalPos="597.96" arrivalSpeed="16.83" duration="112.90" routeLength="1583.62" waitingTime="0.10" waitingCount="1" stopTime="0.00" timeLoss="19.68" rerouteNo="0" devices="tripinfo_0.35 ssm_0.35" vType="type_a" speedFactor="1.00" vaporized=""/>
    <tripinfo id="0.34" depart="23.50" departLane="BtoC_1" departPos="5.10" departSpeed="0.00" departDelay="3.10" arrival="138.80" arrivalLane="DtoE_1" arrivalPos="597.96" arrivalSpeed="16.82" duration="115.30" routeLength="1583.62" waitingTime="0.00" waitingCount="0" stopTime="0.00" timeLoss="22.09" rerouteNo="0" devices="tripinfo_0.34 ssm_0.34" vType="type_a" speedFactor="1.00" vaporized=""/>
    <tripinfo id="0.32" depart="27.90" departLane="BtoC_2" departPos="5.10" departSpeed="1.08" departDelay="8.70" arrival="141.20" arrivalLane="DtoE_2" arrivalPos="597.96" arrivalSpeed="16.80" duration="113.30" routeLength="1583.62" waitingTime="0.00" waitingCount="0" stopTime="0.00" timeLoss="20.06" rerouteNo="0" devices="tripinfo_0.32 ssm_0.32" vType="type_a" speedFactor="1.00" vaporized=""/>
    <tripinfo id="0.38" depart="27.00" departLane="BtoC_0" departPos="5.10" departSpeed="0.00" departDelay="4.20" arrival="141.20" arrivalLane="DtoE_0" arrivalPos="597.96" arrivalSpeed="16.79" duration="114.20" routeLength="1583.62" waitingTime="0.10" waitingCount="1" stopTime="0.00" timeLoss="20.97" rerouteNo="0" devices="tripinfo_0.38 ssm_0.38" vType="type_a" speedFactor="1.00" vaporized=""/>
    <tripinfo id="0.36" depart="26.00" departLane="BtoC_1" departPos="5.10" departSpeed="0.00" departDelay="4.40" arrival="141.70" arrivalLane="DtoE_1" arrivalPos="597.96" arrivalSpeed="16.78" duration="115.70" routeLength="1583.62" waitingTime="0.10" waitingCount="1" stopTime="0.00" timeLoss="22.54" rerouteNo="0" devices="tripinfo_0.36 ssm_0.36" vType="type_a" speedFactor="1.00" vaporized=""/>
    <tripinfo id="0.30" depart="30.40" departLane="BtoC_2" departPos="5.10" departSpeed="0.00" departDelay="12.40" arrival="144.10" arrivalLane="DtoE_2" arrivalPos="597.96" arrivalSpeed="16.77" duration="113.70" routeLength="1583.62" waitingTime="0.10" waitingCount="1" stopTime="0.00" timeLoss="20.48" rerouteNo="0" devices="tripinfo_0.30 ssm_0.30" vType="type_a" speedFactor="1.00" vaporized=""/>
    <tripinfo id="0.40" depart="29.60" departLane="BtoC_0" departPos="5.10" departSpeed="0.00" departDelay="5.60" arrival="144.10" arrivalLane="DtoE_0" arrivalPos="597.96" arrivalSpeed="16.77" duration="114.50" routeLength="1583.62" waitingTime="0.10" waitingCount="1" stopTime="0.00" timeLoss="21.27" rerouteNo="0" devices="tripinfo_0.40 ssm_0.40" vType="type_a" speedFactor="1.00" vaporized=""/>
    <tripinfo id="0.33" depart="28.70" departLane="BtoC_1" departPos="5.10" departSpeed="0.43" departDelay="8.90" arrival="144.60" arrivalLane="DtoE_1" arrivalPos="597.96" arrivalSpeed="16.76" duration="115.90" routeLength="1583.62" waitingTime="0.00" waitingCount="0" stopTime="0.00" timeLoss="22.70" rerouteNo="0" devices="tripinfo_0.33 ssm_0.33" vType="type_a" speedFactor="1.00" vaporized=""/>
    <tripinfo id="0.39" depart="33.00" departLane="BtoC_2" departPos="5.10" departSpeed="1.75" departDelay="9.60" arrival="146.90" arrivalLane="DtoE_2" arrivalPos="597.96" arrivalSpeed="16.74" duration="113.90" routeLength="1583.62" waitingTime="0.00" waitingCount="0" stopTime="0.00" timeLoss="20.75" rerouteNo="0" devices="tripinfo_0.39 ssm_0.39" vType="type_a" speedFactor="1.00" vaporized=""/>
    <tripinfo id="0.42" depart="32.30" departLane="BtoC_0" departPos="5.10" departSpeed="1.50" departDelay="7.10" arrival="146.90" arrivalLane="DtoE_0" arrivalPos="597.96" arrivalSpeed="16.74" duration="114.60" routeLength="1583.62" waitingTime="0.00" waitingCount="0" stopTime="0.00" timeLoss="21.41" rerouteNo="0" devices="tripinfo_0.42 ssm_0.42" vType="type_a" speedFactor="1.00" vaporized=""/>
    <tripinfo id="0.41" depart="31.20" departLane="BtoC_1" departPos="5.10" departSpeed="0.00" departDelay="6.60" arrival="147.40" arrivalLane="DtoE_1" arrivalPos="597.96" arrivalSpeed="16.72" duration="116.20" routeLength="1583.62" waitingTime="0.10" waitingCount="1" stopTime="0.00" timeLoss="23.00" rerouteNo="0" devices="tripinfo_0.41 ssm_0.41" vType="type_a" speedFactor="1.00" vaporized=""/>
    <tripinfo id="0.48" depart="34.70" departLane="BtoC_0" departPos="5.10" departSpeed="0.37" departDelay="5.90" arrival="149.70" arrivalLane="DtoE_0" arrivalPos="597.96" arrivalSpeed="16.72" duration="115.00" routeLength="1583.62" waitingTime="0.00" waitingCount="0" stopTime="0.00" timeLoss="21.82" rerouteNo="0" devices="tripinfo_0.48 ssm_0.48" vType="type_a" speedFactor="1.00" vaporized=""/>
    <tripinfo id="0.44" depart="35.40" departLane="BtoC_2" departPos="5.10" departSpeed="0.00" departDelay="9.00" arrival="149.80" arrivalLane="DtoE_2" arrivalPos="597.96" arrivalSpeed="16.75" duration="114.40" routeLength="1583.62" waitingTime="0.10" waitingCount="1" stopTime="0.00" timeLoss="21.18" rerouteNo="0" devices="tripinfo_0.44 ssm_0.44" vType="type_a" speedFactor="1.00" vaporized=""/>
    <tripinfo id="0.43" depart="33.90" departLane="BtoC_1" departPos="5.10" departSpeed="2.64" departDelay="8.10" arrival="150.10" arrivalLane="DtoE_1" arrivalPos="597.96" arrivalSpeed="16.69" duration="116.20" routeLength="1583.62" waitingTime="0.00" waitingCount="0" stopTime="0.00" timeLoss="23.05" rerouteNo="0" devices="tripinfo_0.43 ssm_0.43" vType="type_a" speedFactor="1.00" vaporized=""/>
    <tripinfo id="0.45" depart="37.20" departLane="BtoC_0" departPos="5.10" departSpeed="0.00" departDelay="10.20" arrival="152.50" arrivalLane="DtoE_0" arrivalPos="597.96" arrivalSpeed="16.72" duration="115.30" routeLength="1583.62" waitingTime="0.10" waitingCount="1" stopTime="0.00" timeLoss="22.10" rerouteNo="0" devices="tripinfo_0.45 ssm_0.45" vType="type_a" speedFactor="1.00" vaporized=""/>
    <tripinfo id="0.47" depart="38.10" departLane="BtoC_2" departPos="5.10" departSpeed="1.25" departDelay="9.90" arrival="152.60" arrivalLane="DtoE_2" arrivalPos="597.96" arrivalSpeed="16.73" duration="114.50" routeLength="1583.62" waitingTime="0.00" waitingCount="0" stopTime="0.00" timeLoss="21.29" rerouteNo="0" devices="tripinfo_0.47 ssm_0.47" vType="type_a" speedFactor="1.00" vaporized=""/>
    <tripinfo id="0.49" depart="36.10" departLane="BtoC_1" departPos="5.10" departSpeed="1.95" departDelay="6.70" arrival="152.90" arrivalLane="DtoE_1" arrivalPos="597.96" arrivalSpeed="16.70" duration="116.80" routeLength="1583.62" waitingTime="0.00" waitingCount="0" stopTime="0.00" timeLoss="23.57" rerouteNo="0" devices="tripinfo_0.49 ssm_0.49" vType="type_a" speedFactor="1.00" vaporized=""/>
    <tripinfo id="0.56" depart="39.90" departLane="BtoC_0" departPos="5.10" departSpeed="0.00" departDelay="6.30" arrival="155.30" arrivalLane="DtoE_0" arrivalPos="597.96" arrivalSpeed="16.71" duration="115.40" routeLength="1583.62" waitingTime="0.10" waitingCount="1" stopTime="0.00" timeLoss="22.17" rerouteNo="0" devices="tripinfo_0.56 ssm_0.56" vType="type_a" speedFactor="1.00" vaporized=""/>
    <tripinfo id="0.50" depart="40.50" departLane="BtoC_2" departPos="5.10" departSpeed="0.00" departDelay="10.50" arrival="155.40" arrivalLane="DtoE_2" arrivalPos="597.96" arrivalSpeed="16.72" duration="114.90" routeLength="1583.62" waitingTime="0.10" waitingCount="1" stopTime="0.00" timeLoss="21.68" rerouteNo="0" devices="tripinfo_0.50 ssm_0.50" vType="type_a" speedFactor="1.00" vaporized=""/>
    <tripinfo id="0.52" depart="38.50" departLane="BtoC_1" departPos="5.10" departSpeed="0.00" departDelay="7.30" arrival="155.60" arrivalLane="DtoE_1" arrivalPos="597.96" arrivalSpeed="16.67" duration="117.10" routeLength="1583.62" waitingTime="0.10" waitingCount="1" stopTime="0.00" timeLoss="23.86" rerouteNo="0" devices="tripinfo_0.52 ssm_0.52" vType="type_a" speedFactor="1.00" vaporized=""/>
    <tripinfo id="0.60" depart="42.50" departLane="BtoC_0" departPos="5.10" departSpeed="0.00" departDelay="6.50" arrival="158.00" arrivalLane="DtoE_0" arrivalPos="597.96" arrivalSpeed="16.69" duration="115.50" routeLength="1583.62" waitingTime="0.10" waitingCount="1" stopTime="0.00" timeLoss="22.32" rerouteNo="0" devices="tripinfo_0.60 ssm_0.60" vType="type_a" speedFactor="1.00" vaporized=""/>
    <tripinfo id="0.54" depart="41.20" departLane="BtoC_1" departPos="5.10" departSpeed="0.00" departDelay="8.80" arrival="158.20" arrivalLane="DtoE_1" arrivalPos="597.96" arrivalSpeed="16.63" duration="117.00" routeLength="1583.62" waitingTime="0.10" waitingCount="1" stopTime="0.00" timeLoss="23.82" rerouteNo="0" devices="tripinfo_0.54 ssm_0.54" vType="type_a" speedFactor="1.00" vaporized=""/>
    <tripinfo id="0.61" depart="43.20" departLane="BtoC_2" departPos="5.10" departSpeed="2.69" departDelay="6.60" arrival="158.20" arrivalLane="DtoE_2" arrivalPos="597.96" arrivalSpeed="16.72" duration="115.00" routeLength="1583.62" waitingTime="0.00" waitingCount="0" stopTime="0.00" timeLoss="21.76" rerouteNo="0" devices="tripinfo_0.61 ssm_0.61" vType="type_a" speedFactor="1.00" vaporized=""/>
    <tripinfo id="0.46" depart="45.20" departLane="BtoC_0" departPos="5.10" departSpeed="0.00" departDelay="17.60" arrival="160.80" arrivalLane="DtoE_0" arrivalPos="597.96" arrivalSpeed="16.70" duration="115.60" routeLength="1583.62" waitingTime="0.10" waitingCount="1" stopTime="0.00" timeLoss="22.36" rerouteNo="0" devices="tripinfo_0.46 ssm_0.46" vType="type_a" speedFactor="1.00" vaporized=""/>
    <tripinfo id="0.51" depart="45.40" departLane="BtoC_2" departPos="5.10" departSpeed="2.09" departDelay="14.80" arrival="160.90" arrivalLane="DtoE_2" arrivalPos="597.96" arrivalSpeed="16.69" duration="115.50" routeLength="1583.62" waitingTime="0.00" waitingCount="0" stopTime="0.00" timeLoss="22.33" rerouteNo="0" devices="tripinfo_0.51 ssm_0.51" vType="type_a" speedFactor="1.00" vaporized=""/>
    <tripinfo id="0.62" depart="43.80" departLane="BtoC_1" departPos="5.10" departSpeed="0.00" departDelay="6.60" arrival="160.90" arrivalLane="DtoE_1" arrivalPos="597.96" arrivalSpeed="16.65" duration="117.10" routeLength="1583.62" waitingTime="0.10" waitingCount="1" stopTime="0.00" timeLoss="23.87" rerouteNo="0" devices="tripinfo_0.62 ssm_0.62" vType="type_a" speedFactor="1.00" vaporized=""/>
    <tripinfo id="0.53" depart="47.80" departLane="BtoC_0" departPos="5.10" departSpeed="0.00" departDelay="16.00" arrival="163.50" arrivalLane="DtoE_0" arrivalPos="597.96" arrivalSpeed="16.68" duration="115.70" routeLength="1583.62" waitingTime="0.10" waitingCount="1" stopTime="0.00" timeLoss="22.49" rerouteNo="0" devices="tripinfo_0.53 ssm_0.53" vType="type_a" speedFactor="1.00" vaporized=""/>
    <tripinfo id="0.58" depart="46.50" departLane="BtoC_1" departPos="5.10" departSpeed="0.00" departDelay="11.70" arrival="163.50" arrivalLane="DtoE_1" arrivalPos="597.96" arrivalSpeed="16.62" duration="117.00" routeLength="1583.62" waitingTime="0.10" waitingCount="1" stopTime="0.00" timeLoss="23.80" rerouteNo="0" devices="tripinfo_0.58 ssm_0.58" vType="type_a" speedFactor="1.00" vaporized=""/>
    <tripinfo id="0.55" depart="47.80" departLane="BtoC_2" departPos="5.10" departSpeed="0.00" departDelay="14.80" arrival="163.70" arrivalLane="DtoE_2" arrivalPos="597.96" arrivalSpeed="16.71" duration="115.90" routeLength="1583.62" waitingTime="0.10" waitingCount="1" stopTime="0.00" timeLoss="22.68" rerouteNo="0" devices="tripinfo_0.55 ssm_0.55" vType="type_a" speedFactor="1.00" vaporized=""/>
    <tripinfo id="a1000" depart="100.10" departLane="dtoD_0" departPos="5.10" departSpeed="21.46" departDelay="0.00" arrival="165.20" arrivalLane="DtoE_2" arrivalPos="597.96" arrivalSpeed="19.21" duration="65.10" routeLength="932.92" waitingTime="6.70" waitingCount="1" stopTime="0.00" timeLoss="27.25" rerouteNo="0" devices="tripinfo_a1000" vType="human" speedFactor="0.97" vaporized=""/>
    <tripinfo id="0.63" depart="49.10" departLane="BtoC_1" departPos="5.10" departSpeed="0.00" departDelay="11.30" arrival="166.10" arrivalLane="DtoE_1" arrivalPos="597.96" arrivalSpeed="16.61" duration="117.00" routeLength="1583.62" waitingTime="0.10" waitingCount="1" stopTime="0.00" timeLoss="23.82" rerouteNo="0" devices="tripinfo_0.63 ssm_0.63" vType="type_a" speedFactor="1.00" vaporized=""/>
    <tripinfo id="0.57" depart="50.40" departLane="BtoC_0" departPos="5.10" departSpeed="0.00" departDelay="16.20" arrival="167.50" arrivalLane="DtoE_0" arrivalPos="597.96" arrivalSpeed="16.87" duration="117.10" routeLength="1583.62" waitingTime="2.60" waitingCount="2" stopTime="0.00" timeLoss="23.88" rerouteNo="0" devices="tripinfo_0.57 ssm_0.57" vType="type_a" speedFactor="1.00" vaporized=""/>
    <tripinfo id="0.67" depart="50.50" departLane="BtoC_2" departPos="5.10" departSpeed="0.59" departDelay="10.30" arrival="168.20" arrivalLane="DtoE_2" arrivalPos="597.96" arrivalSpeed="16.83" duration="117.70" routeLength="1583.62" waitingTime="0.00" waitingCount="0" stopTime="0.00" timeLoss="24.55" rerouteNo="0" devices="tripinfo_0.67 ssm_0.67" vType="type_a" speedFactor="1.00" vaporized=""/>
    <tripinfo id="0.65" depart="51.80" departLane="BtoC_1" departPos="5.10" departSpeed="0.00" departDelay="12.80" arrival="168.80" arrivalLane="DtoE_0" arrivalPos="597.96" arrivalSpeed="16.66" duration="117.00" routeLength="1583.62" waitingTime="0.00" waitingCount="0" stopTime="0.00" timeLoss="23.83" rerouteNo="0" devices="tripinfo_0.65 ssm_0.65" vType="type_a" speedFactor="1.00" vaporized=""/>
    <tripinfo id="0.59" depart="53.00" departLane="BtoC_2" departPos="5.10" departSpeed="0.00" departDelay="17.60" arrival="171.30" arrivalLane="DtoE_2" arrivalPos="597.96" arrivalSpeed="16.82" duration="118.30" routeLength="1583.62" waitingTime="0.10" waitingCount="1" stopTime="0.00" timeLoss="25.12" rerouteNo="0" devices="tripinfo_0.59 ssm_0.59" vType="type_a" speedFactor="1.00" vaporized=""/>
    <tripinfo id="0.68" depart="53.10" departLane="BtoC_0" departPos="5.10" departSpeed="2.38" departDelay="12.30" arrival="171.30" arrivalLane="DtoE_0" arrivalPos="597.96" arrivalSpeed="16.66" duration="118.20" routeLength="1583.62" waitingTime="0.00" waitingCount="0" stopTime="0.00" timeLoss="24.99" rerouteNo="0" devices="tripinfo_0.68 ssm_0.68" vType="type_a" speedFactor="1.00" vaporized=""/>
    <tripinfo id="0.72" depart="54.40" departLane="BtoC_1" departPos="5.10" departSpeed="0.00" departDelay="11.20" arrival="171.50" arrivalLane="DtoE_1" arrivalPos="597.96" arrivalSpeed="16.84" duration="117.10" routeLength="1583.62" waitingTime="0.10" waitingCount="1" stopTime="0.00" timeLoss="23.91" rerouteNo="0" devices="tripinfo_0.72 ssm_0.72" vType="type_a" speedFactor="1.00" vaporized=""/>
    <tripinfo id="0.64" depart="55.60" departLane="BtoC_2" departPos="5.10" departSpeed="0.00" departDelay="17.20" arrival="174.40" arrivalLane="DtoE_2" arrivalPos="597.96" arrivalSpeed="16.82" duration="118.80" routeLength="1583.62" waitingTime="0.10" waitingCount="1" stopTime="0.00" timeLoss="25.56" rerouteNo="0" devices="tripinfo_0.64 ssm_0.64" vType="type_a" speedFactor="1.00" vaporized=""/>
    <tripinfo id="0.66" depart="57.00" departLane="BtoC_1" departPos="5.10" departSpeed="0.00" departDelay="17.40" arrival="174.40" arrivalLane="DtoE_1" arrivalPos="597.96" arrivalSpeed="16.77" duration="117.40" routeLength="1583.62" waitingTime="0.10" waitingCount="1" stopTime="0.00" timeLoss="24.20" rerouteNo="0" devices="tripinfo_0.66 ssm_0.66" vType="type_a" speedFactor="1.00" vaporized=""/>